         Total DFT energy =      -56.519546949423
@ Step       Energy      Delta E   Gmax     Grms     Xrms     Xmax   Walltime
@ ---- ---------------- -------- -------- -------- -------- -------- --------
@    0     -56.51954695  0.0D+00  0.04493  0.02747  0.00000  0.00000      1.1
         Total DFT energy =      -56.530892578077
         Total DFT energy =      -56.531020459452
@    1     -56.53102046 -1.1D-02  0.01058  0.00548  0.07440  0.12794      2.3
         Total DFT energy =      -56.531650137092
         Total DFT energy =    -56.531650137092
@    2     -56.53165014 -6.3D-04  0.00524  0.00205  0.02241  0.03661      2.9
         Total DFT energy =      -56.531800020581
         Total DFT energy =      -56.531873368449
@    3     -56.53187337 -2.2D-04  0.00121  0.00067  0.02448  0.07067      4.0
         Total DFT energy =      -56.531886074954

 Vector   11  Occ=0.000000D+00  E= 7.441541D-01  Symmetry=e

 Vector   12  Occ=0.000000D+00  E= 8.677831D-01  Symmetry=a1

 Vector   13  Occ=0.000000D+00  E= 9.545159D-01  Symmetry=e

 Vector   14  Occ=0.000000D+00  E= 9.545159D-01  Symmetry=e

 Vector   15  Occ=0.000000D+00  E= 1.205886D+00  Symmetry=a1

         Total DFT energy =      -56.531887257512

 Vector    1  Occ=2.000000D+00  E=-1.428500D+01  Symmetry=a1

 Vector    2  Occ=2.000000D+00  E=-8.324763D-01  Symmetry=a1

 Vector    3  Occ=2.000000D+00  E=-4.668393D-01  Symmetry=e

 Vector    4  Occ=2.000000D+00  E=-4.668393D-01  Symmetry=e

 Vector    5  Occ=2.000000D+00  E=-2.199231D-01  Symmetry=a1

 Vector    6  Occ=0.000000D+00  E= 8.506854D-02  Symmetry=a1

 Vector    7  Occ=0.000000D+00  E= 1.759025D-01  Symmetry=e

 Vector    8  Occ=0.000000D+00  E= 1.759025D-01  Symmetry=e

 Vector    9  Occ=0.000000D+00  E= 7.228488D-01  Symmetry=a1

 Vector   10  Occ=0.000000D+00  E= 7.444390D-01  Symmetry=e

 Vector   11  Occ=0.000000D+00  E= 7.444390D-01  Symmetry=e

 Vector   12  Occ=0.000000D+00  E= 8.671645D-01  Symmetry=a1

 Vector   13  Occ=0.000000D+00  E= 9.553476D-01  Symmetry=e

 Vector   14  Occ=0.000000D+00  E= 9.553476D-01  Symmetry=e

 Vector   15  Occ=0.000000D+00  E= 1.205554D+00  Symmetry=a1

@    4     -56.53188726 -1.4D-05  0.00026  0.00013  0.00619  0.01854      5.1
         Total DFT energy =      -56.531887929750

 Vector    1  Occ=2.000000D+00  E=-1.428486D+01  Symmetry=a1

 Vector    2  Occ=2.000000D+00  E=-8.320451D-01  Symmetry=a1

 Vector    3  Occ=2.000000D+00  E=-4.668507D-01  Symmetry=e

 Vector    4  Occ=2.000000D+00  E=-4.668507D-01  Symmetry=e

 Vector    5  Occ=2.000000D+00  E=-2.197254D-01  Symmetry=a1

 Vector    6  Occ=0.000000D+00  E= 8.512821D-02  Symmetry=a1

 Vector    7  Occ=0.000000D+00  E= 1.759439D-01  Symmetry=e

 Vector    8  Occ=0.000000D+00  E= 1.759439D-01  Symmetry=e

 Vector    9  Occ=0.000000D+00  E= 7.227949D-01  Symmetry=a1

 Vector   10  Occ=0.000000D+00  E= 7.449482D-01  Symmetry=e

 Vector   11  Occ=0.000000D+00  E= 7.449482D-01  Symmetry=e

 Vector   12  Occ=0.000000D+00  E= 8.658765D-01  Symmetry=a1

 Vector   13  Occ=0.000000D+00  E= 9.554514D-01  Symmetry=e

 Vector   14  Occ=0.000000D+00  E= 9.554514D-01  Symmetry=e

 Vector   15  Occ=0.000000D+00  E= 1.205137D+00  Symmetry=a1

         Total DFT energy =    -56.531887929750
@    5     -56.53188793 -6.7D-07  0.00002  0.00001  0.00162  0.00436      5.7
         Total DFT energy =      -56.531887935921

 Vector    1  Occ=2.000000D+00  E=-1.428478D+01  Symmetry=a1

 Vector    2  Occ=2.000000D+00  E=-8.319926D-01  Symmetry=a1

 Vector    3  Occ=2.000000D+00  E=-4.668534D-01  Symmetry=e

 Vector    4  Occ=2.000000D+00  E=-4.668534D-01  Symmetry=e

 Vector    5  Occ=2.000000D+00  E=-2.196844D-01  Symmetry=a1

 Vector    6  Occ=0.000000D+00  E= 8.515618D-02  Symmetry=a1

 Vector    7  Occ=0.000000D+00  E= 1.759695D-01  Symmetry=e

 Vector    8  Occ=0.000000D+00  E= 1.759695D-01  Symmetry=e

 Vector    9  Occ=0.000000D+00  E= 7.228037D-01  Symmetry=a1

 Vector   10  Occ=0.000000D+00  E= 7.450028D-01  Symmetry=e

 Vector   11  Occ=0.000000D+00  E= 7.450028D-01  Symmetry=e

 Vector   12  Occ=0.000000D+00  E= 8.657696D-01  Symmetry=a1

 Vector   13  Occ=0.000000D+00  E= 9.555268D-01  Symmetry=e

 Vector   14  Occ=0.000000D+00  E= 9.555268D-01  Symmetry=e

 Vector   15  Occ=0.000000D+00  E= 1.205105D+00  Symmetry=a1

         Total DFT energy =    -56.531887935921
@    6     -56.53188794 -6.2D-09  0.00000  0.00000  0.00020  0.00058      6.2
@    6     -56.53188794 -6.2D-09  0.00000  0.00000  0.00020  0.00058      6.2

 Output coordinates in angstroms (scale by  1.889725989 to convert to a.u.)

  No.       Tag          Charge          X              Y              Z
 ---- ---------------- ---------- -------------- -------------- --------------
    1 N                    7.0000     0.00000000     0.00000000    -0.01404390
    2 H                    1.0000     0.69719167     0.69719167    -0.21329349
    3 H                    1.0000     0.25518986    -0.95238154    -0.21329349
    4 H                    1.0000    -0.95238154     0.25518986    -0.21329349

         Total DFT energy =      -56.531887878845

 Vector    1  Occ=2.000000D+00  E=-1.428482D+01

 Vector    2  Occ=2.000000D+00  E=-8.320086D-01

 Vector    3  Occ=2.000000D+00  E=-4.668671D-01

 Vector    4  Occ=2.000000D+00  E=-4.668671D-01

 Vector    5  Occ=2.000000D+00  E=-2.197025D-01

 Vector    6  Occ=0.000000D+00  E= 8.515165D-02

 Vector    7  Occ=0.000000D+00  E= 1.759632D-01

 Vector    8  Occ=0.000000D+00  E= 1.759632D-01

 Vector    9  Occ=0.000000D+00  E= 7.227881D-01

 Vector   10  Occ=0.000000D+00  E= 7.449954D-01

 Vector   11  Occ=0.000000D+00  E= 7.449955D-01

 Vector   12  Occ=0.000000D+00  E= 8.657634D-01

 Vector   13  Occ=0.000000D+00  E= 9.555127D-01

 Vector   14  Occ=0.000000D+00  E= 9.555128D-01

 Vector   15  Occ=0.000000D+00  E= 1.205093D+00

 Zero-Point correction to Energy  =   21.358 kcal/mol  (  0.034037 au)
 Thermal correction to Energy     =   23.299 kcal/mol  (  0.037129 au)
 Thermal correction to Enthalpy   =   23.891 kcal/mol  (  0.038073 au)
 Total Entropy                    =   46.580 cal/mol-K
   - Translational                =   34.425 cal/mol-K (mol. weight =  17.0265)
   - Rotational                   =   11.375 cal/mol-K (symmetry #  =        3)
   - Vibrational                  =    0.780 cal/mol-K
   - Translational                  =    2.979 cal/mol-K
   - Rotational                     =    2.979 cal/mol-K
   - Vibrational                    =    1.419 cal/mol-K
 P.Frequency       -0.00       -0.00        0.00        0.00        0.00        0.00
 P.Frequency      458.72     1681.09     1681.09     3575.51     3775.58     3775.58

 Normal Eigenvalue ||           Projected Infra Red Intensities
  Mode   [cm**-1]  || [atomic units] [(debye/angs)**2] [(KM/mol)] [arbitrary]
 ------ ---------- || -------------- ----------------- ---------- -----------
    1       -0.000 ||    0.000009           0.000         0.009       0.001
    2       -0.000 ||    0.045379           1.047        44.237       6.734
    3        0.000 ||    0.012226           0.282        11.919       1.814
    4        0.000 ||    0.040989           0.946        39.958       6.083
    5        0.000 ||    0.000016           0.000         0.015       0.002
    6        0.000 ||    0.000004           0.000         0.003       0.001
    7      458.716 ||    0.610617          14.087       595.259      90.616
    8     1681.089 ||    0.042563           0.982        41.493       6.316
    9     1681.090 ||    0.042563           0.982        41.493       6.316
   10     3575.507 ||    0.000065           0.002         0.063       0.010
   11     3775.583 ||    0.007097           0.164         6.918       1.053
   12     3775.584 ||    0.007097           0.164         6.918       1.053
 ----------------------------------------------------------------------------

         Total DFT energy =      -56.551680451617

                       DFT Final Molecular Orbital Analysis
                       ------------------------------------

 Vector    1  Occ=2.000000D+00  E=-1.426725D+01  Symmetry=a1

 Vector    2  Occ=2.000000D+00  E=-8.378974D-01  Symmetry=a1

 Vector    3  Occ=2.000000D+00  E=-4.731175D-01  Symmetry=e

 Vector    4  Occ=2.000000D+00  E=-4.731175D-01  Symmetry=e

 Vector    5  Occ=2.000000D+00  E=-2.291317D-01  Symmetry=a1

 Vector    6  Occ=0.000000D+00  E= 4.204714D-02  Symmetry=a1

 Vector    7  Occ=0.000000D+00  E= 1.198259D-01  Symmetry=e

 Vector    8  Occ=0.000000D+00  E= 1.198259D-01  Symmetry=e

 Vector    9  Occ=0.000000D+00  E= 3.607891D-01  Symmetry=e

 Vector   10  Occ=0.000000D+00  E= 3.607891D-01  Symmetry=e

 Vector   11  Occ=0.000000D+00  E= 4.139386D-01  Symmetry=a1

 Vector   12  Occ=0.000000D+00  E= 6.117530D-01  Symmetry=a1

 Vector   13  Occ=0.000000D+00  E= 7.321508D-01  Symmetry=e

 Vector   14  Occ=0.000000D+00  E= 7.321508D-01  Symmetry=e

 Vector   15  Occ=0.000000D+00  E= 9.757744D-01  Symmetry=a1

     Multipole analysis of the density
     ---------------------------------

     L   x y z        total         alpha         beta         nuclear
     -   - - -        -----         -----         ----         -------
     0   0 0 0     -0.000000     -5.000000     -5.000000     10.000000

     1   1 0 0      0.000000      0.000000      0.000000      0.000000
     1   0 1 0     -0.000000     -0.000000     -0.000000      0.000000
     1   0 0 1     -0.482096      0.456438      0.456438     -1.394973

     2   2 0 0     -4.284622     -4.746025     -4.746025      5.207428
     2   1 1 0      0.000000      0.000000      0.000000      0.000000
     2   1 0 1      0.000000      0.000000      0.000000      0.000000
     2   0 2 0     -4.284622     -4.746025     -4.746025      5.207428
     2   0 1 1      0.000000      0.000000      0.000000     -0.000000

 Total times  cpu:       14.8s     wall:       18.0s
